HEADER
"PSFversion" "1.00"
"design" "(\"ELEC402\" \"Question2bA3TB\" \"schematic\" \"\")"
"simulator" "spectre"
"temperature" "27"
"host" ""
"date" "Nov  4 20:25:33 2018"
"title" ""
"analysisList" "()"
END
