HEADER
"PSFversion" "1.00"
"I0n" "NAND3"
"V0n" "analogLib_vdc_spectre"
"V3n V2n V1n" "analogLib_vpulse_spectre"
"C0n" "analogLib_cap_spectre"
