HEADER
"PSFversion" "1.00"
"NM3n NM2n NM1n NM0n" "gpdk045_nmos1v_spectre"
"PM3n PM2n PM1n PM0n" "gpdk045_pmos1v_spectre"
"Av" ":1v"
"Bv" ":2v"
"Cv" ":3v"
"Dv" ":4v"
"GNDv" ":5v"
"OUTPUTv" ":6v"
"VDDv" ":7v"
