HEADER
"PSFversion" "1.00"
"V0n" "analogLib_vdc_spectre"
"C0n" "analogLib_cap_spectre"
"I14n" "NMOS_PMOS_transistor"
"V1n" "analogLib_vpulse_spectre"
