HEADER
"PSFversion" "1.00"
"PM0n" "gpdk045_pmos1v_spectre"
"NM0n" "gpdk045_nmos1v_spectre"
"GNDv" ":1v"
"INv" ":2v"
"OUTv" ":3v"
"VDDv" ":4v"
