HEADER
"PSFversion" "1.00"
"design" "(\"ELEC402\" \"CELL_TB\" \"schematic\" \"\")"
"simulator" "spectre"
"temperature" "27"
"host" ""
"date" "Nov  3 22:59:46 2018"
"title" ""
"analysisList" "()"
END
