HEADER
"PSFversion" "1.00"
"Time Stamp" "Nov  3 22:59:46 2018"
TYPE
"variable" STRUCT(
"value" FLOAT DOUBLE
) PROP( "key" "element" )
VALUE
"vdd" "variable" ( 1 ) PROP( )
"T" "variable" ( 500e-12 ) PROP( )
"temp" "variable" ( 27 ) PROP( )
END
