HEADER
"PSFversion" "1.00"
"design" "(\"ELEC402\" \"NAND3TESTBENCH\" \"schematic\" \"\")"
"simulator" "spectre"
"temperature" "27"
"host" ""
"date" "Nov  4 23:22:47 2018"
"title" ""
"analysisList" "()"
END
